<?xml version="1.0" encoding="UTF-8"?>

<!-- generated on 09/03/20 11:02:21 by Eclipse SUMO GUI Version 1.6.0
<configuration xmlns:xsi="http://www.w3.org/2001/XMLSchema-instance" xsi:noNamespaceSchemaLocation="http://sumo.dlr.de/xsd/sumoConfiguration.xsd">

    <input>
        <net-file value="C:\Users\CCarta\Documents\Uni\Sistemi%20Complessi%20Modelli%20e%20simulazione\Progetto\IntelliLights\incrocio_prova.net.xml"/>
        <route-files value="C:\Users\CCarta\Documents\Uni\Sistemi%20Complessi%20Modelli%20e%20simulazione\Progetto\IntelliLights\net.rou.xml"/>
        <additional-files value="C:\Users\CCarta\Documents\Uni\Sistemi%20Complessi%20Modelli%20e%20simulazione\Progetto\IntelliLights\cross.det.xml"/>
    </input>

</configuration>
-->

<detector xmlns:xsi="http://www.w3.org/2001/XMLSchema-instance" xsi:noNamespaceSchemaLocation="http://sumo.dlr.de/xsd/det_e1_file.xsd">
</detector>
