<?xml version="1.0" encoding="UTF-8"?>

<!-- generated on 09/02/20 12:08:18 by Eclipse SUMO GUI Version 1.6.0
<configuration xmlns:xsi="http://www.w3.org/2001/XMLSchema-instance" xsi:noNamespaceSchemaLocation="http://sumo.dlr.de/xsd/sumoConfiguration.xsd">

    <input>
        <net-file value="incrocio_prova.net.xml"/>
        <route-files value="net.rou.xml"/>
        <additional-files value="cross.det.xml"/>
    </input>

    <output>
        <tripinfo-output value="tripinfo.xml"/>
    </output>

    <traci_server>
        <remote-port value="61993"/>
    </traci_server>

</configuration>
-->

<tripinfos xmlns:xsi="http://www.w3.org/2001/XMLSchema-instance" xsi:noNamespaceSchemaLocation="http://sumo.dlr.de/xsd/tripinfo_file.xsd">
    <tripinfo id="vehicle_63" depart="0.00" departLane="EW0_0" departPos="5.10" departSpeed="0.00" departDelay="0.00" arrival="18.00" arrivalLane="EW1_0" arrivalPos="89.60" arrivalSpeed="13.96" duration="18.00" routeLength="194.90" waitingTime="0.00" waitingCount="0" stopTime="0.00" timeLoss="4.32" rerouteNo="0" devices="tripinfo_vehicle_63" vType="DEFAULT_VEHTYPE" speedFactor="1.08" vaporized=""/>
    <tripinfo id="vehicle_21" depart="0.00" departLane="WE0_0" departPos="5.10" departSpeed="0.00" departDelay="0.00" arrival="19.00" arrivalLane="SN1_0" arrivalPos="89.60" arrivalSpeed="13.53" duration="19.00" routeLength="183.13" waitingTime="0.00" waitingCount="0" stopTime="0.00" timeLoss="4.57" rerouteNo="0" devices="tripinfo_vehicle_21" vType="DEFAULT_VEHTYPE" speedFactor="0.99" vaporized=""/>
    <tripinfo id="vehicle_64" depart="3.00" departLane="EW0_0" departPos="5.10" departSpeed="0.00" departDelay="3.00" arrival="20.00" arrivalLane="EW1_0" arrivalPos="89.60" arrivalSpeed="14.28" duration="17.00" routeLength="194.90" waitingTime="0.00" waitingCount="0" stopTime="0.00" timeLoss="3.74" rerouteNo="0" devices="tripinfo_vehicle_64" vType="DEFAULT_VEHTYPE" speedFactor="1.12" vaporized=""/>
    <tripinfo id="vehicle_22" depart="3.00" departLane="WE0_0" departPos="5.10" departSpeed="0.00" departDelay="3.00" arrival="23.00" arrivalLane="SN1_0" arrivalPos="89.60" arrivalSpeed="12.37" duration="20.00" routeLength="183.13" waitingTime="0.00" waitingCount="0" stopTime="0.00" timeLoss="5.28" rerouteNo="0" devices="tripinfo_vehicle_22" vType="DEFAULT_VEHTYPE" speedFactor="0.93" vaporized=""/>
    <tripinfo id="vehicle_65" depart="6.00" departLane="EW0_0" departPos="5.10" departSpeed="0.00" departDelay="6.00" arrival="24.00" arrivalLane="EW1_0" arrivalPos="89.60" arrivalSpeed="14.02" duration="18.00" routeLength="194.90" waitingTime="0.00" waitingCount="0" stopTime="0.00" timeLoss="3.64" rerouteNo="0" devices="tripinfo_vehicle_65" vType="DEFAULT_VEHTYPE" speedFactor="1.02" vaporized=""/>
    <tripinfo id="vehicle_66" depart="9.00" departLane="EW0_0" departPos="5.10" departSpeed="0.00" departDelay="9.00" arrival="27.00" arrivalLane="EW1_0" arrivalPos="89.60" arrivalSpeed="12.51" duration="18.00" routeLength="194.90" waitingTime="0.00" waitingCount="0" stopTime="0.00" timeLoss="3.50" rerouteNo="0" devices="tripinfo_vehicle_66" vType="DEFAULT_VEHTYPE" speedFactor="0.99" vaporized=""/>
    <tripinfo id="vehicle_23" depart="6.00" departLane="WE0_0" departPos="5.10" departSpeed="0.00" departDelay="6.00" arrival="28.00" arrivalLane="SN1_0" arrivalPos="89.60" arrivalSpeed="12.04" duration="22.00" routeLength="183.13" waitingTime="0.00" waitingCount="0" stopTime="0.00" timeLoss="5.16" rerouteNo="0" devices="tripinfo_vehicle_23" vType="DEFAULT_VEHTYPE" speedFactor="0.88" vaporized=""/>
    <tripinfo id="vehicle_24" depart="9.00" departLane="WE0_0" departPos="5.10" departSpeed="0.00" departDelay="9.00" arrival="29.00" arrivalLane="SN1_0" arrivalPos="89.60" arrivalSpeed="12.39" duration="20.00" routeLength="183.13" waitingTime="0.00" waitingCount="0" stopTime="0.00" timeLoss="5.44" rerouteNo="0" devices="tripinfo_vehicle_24" vType="DEFAULT_VEHTYPE" speedFactor="0.94" vaporized=""/>
    <tripinfo id="vehicle_67" depart="12.00" departLane="EW0_0" departPos="5.10" departSpeed="0.00" departDelay="12.00" arrival="31.00" arrivalLane="EW1_0" arrivalPos="89.60" arrivalSpeed="12.56" duration="19.00" routeLength="194.90" waitingTime="0.00" waitingCount="0" stopTime="0.00" timeLoss="3.38" rerouteNo="0" devices="tripinfo_vehicle_67" vType="DEFAULT_VEHTYPE" speedFactor="0.94" vaporized=""/>
    <tripinfo id="vehicle_25" depart="12.00" departLane="WE0_0" departPos="5.10" departSpeed="0.00" departDelay="12.00" arrival="33.00" arrivalLane="SN1_0" arrivalPos="89.60" arrivalSpeed="12.53" duration="21.00" routeLength="183.13" waitingTime="0.00" waitingCount="0" stopTime="0.00" timeLoss="5.61" rerouteNo="0" devices="tripinfo_vehicle_25" vType="DEFAULT_VEHTYPE" speedFactor="0.94" vaporized=""/>
    <tripinfo id="vehicle_26" depart="15.00" departLane="WE0_0" departPos="5.10" departSpeed="0.00" departDelay="15.00" arrival="34.00" arrivalLane="SN1_0" arrivalPos="89.60" arrivalSpeed="15.99" duration="19.00" routeLength="183.13" waitingTime="0.00" waitingCount="0" stopTime="0.00" timeLoss="6.50" rerouteNo="0" devices="tripinfo_vehicle_26" vType="DEFAULT_VEHTYPE" speedFactor="1.16" vaporized=""/>
    <tripinfo id="vehicle_68" depart="15.00" departLane="EW0_0" departPos="5.10" departSpeed="0.00" departDelay="15.00" arrival="34.00" arrivalLane="EW1_0" arrivalPos="89.60" arrivalSpeed="11.91" duration="19.00" routeLength="194.90" waitingTime="0.00" waitingCount="0" stopTime="0.00" timeLoss="2.99" rerouteNo="0" devices="tripinfo_vehicle_68" vType="DEFAULT_VEHTYPE" speedFactor="0.88" vaporized=""/>
    <tripinfo id="vehicle_27" depart="18.00" departLane="WE0_0" departPos="5.10" departSpeed="0.00" departDelay="18.00" arrival="38.00" arrivalLane="SN1_0" arrivalPos="89.60" arrivalSpeed="13.26" duration="20.00" routeLength="183.13" waitingTime="0.00" waitingCount="0" stopTime="0.00" timeLoss="5.32" rerouteNo="0" devices="tripinfo_vehicle_27" vType="DEFAULT_VEHTYPE" speedFactor="1.02" vaporized=""/>
    <tripinfo id="vehicle_69" depart="17.00" departLane="EW0_0" departPos="5.10" departSpeed="0.00" departDelay="17.00" arrival="38.00" arrivalLane="EW1_0" arrivalPos="89.60" arrivalSpeed="11.98" duration="21.00" routeLength="194.90" waitingTime="0.00" waitingCount="0" stopTime="0.00" timeLoss="4.77" rerouteNo="0" devices="tripinfo_vehicle_69" vType="DEFAULT_VEHTYPE" speedFactor="0.91" vaporized=""/>
    <tripinfo id="vehicle_70" depart="21.00" departLane="EW0_0" departPos="5.10" departSpeed="0.00" departDelay="21.00" arrival="39.00" arrivalLane="EW1_0" arrivalPos="89.60" arrivalSpeed="14.38" duration="18.00" routeLength="194.90" waitingTime="0.00" waitingCount="0" stopTime="0.00" timeLoss="4.37" rerouteNo="0" devices="tripinfo_vehicle_70" vType="DEFAULT_VEHTYPE" speedFactor="1.04" vaporized=""/>
    <tripinfo id="vehicle_28" depart="21.00" departLane="WE0_0" departPos="5.10" departSpeed="0.00" departDelay="21.00" arrival="41.00" arrivalLane="SN1_0" arrivalPos="89.60" arrivalSpeed="13.99" duration="20.00" routeLength="183.13" waitingTime="0.00" waitingCount="0" stopTime="0.00" timeLoss="5.86" rerouteNo="0" devices="tripinfo_vehicle_28" vType="DEFAULT_VEHTYPE" speedFactor="1.01" vaporized=""/>
    <tripinfo id="vehicle_71" depart="23.00" departLane="EW0_0" departPos="5.10" departSpeed="0.00" departDelay="23.00" arrival="41.00" arrivalLane="EW1_0" arrivalPos="89.60" arrivalSpeed="13.36" duration="18.00" routeLength="194.90" waitingTime="0.00" waitingCount="0" stopTime="0.00" timeLoss="4.15" rerouteNo="0" devices="tripinfo_vehicle_71" vType="DEFAULT_VEHTYPE" speedFactor="1.02" vaporized=""/>
    <tripinfo id="vehicle_29" depart="24.00" departLane="WE0_0" departPos="5.10" departSpeed="0.00" departDelay="24.00" arrival="44.00" arrivalLane="SN1_0" arrivalPos="89.60" arrivalSpeed="12.72" duration="20.00" routeLength="183.13" waitingTime="0.00" waitingCount="0" stopTime="0.00" timeLoss="5.60" rerouteNo="0" devices="tripinfo_vehicle_29" vType="DEFAULT_VEHTYPE" speedFactor="0.98" vaporized=""/>
    <tripinfo id="vehicle_72" depart="26.00" departLane="EW0_0" departPos="5.10" departSpeed="0.00" departDelay="26.00" arrival="44.00" arrivalLane="EW1_0" arrivalPos="89.60" arrivalSpeed="14.12" duration="18.00" routeLength="194.90" waitingTime="0.00" waitingCount="0" stopTime="0.00" timeLoss="3.88" rerouteNo="0" devices="tripinfo_vehicle_72" vType="DEFAULT_VEHTYPE" speedFactor="1.02" vaporized=""/>
    <tripinfo id="vehicle_73" depart="29.00" departLane="EW0_0" departPos="5.10" departSpeed="0.00" departDelay="29.00" arrival="48.00" arrivalLane="EW1_0" arrivalPos="89.60" arrivalSpeed="12.74" duration="19.00" routeLength="194.90" waitingTime="0.00" waitingCount="0" stopTime="0.00" timeLoss="4.16" rerouteNo="0" devices="tripinfo_vehicle_73" vType="DEFAULT_VEHTYPE" speedFactor="0.97" vaporized=""/>
    <tripinfo id="vehicle_30" depart="27.00" departLane="WE0_0" departPos="5.10" departSpeed="0.00" departDelay="27.00" arrival="49.00" arrivalLane="SN1_0" arrivalPos="89.60" arrivalSpeed="11.11" duration="22.00" routeLength="183.13" waitingTime="0.00" waitingCount="0" stopTime="0.00" timeLoss="5.31" rerouteNo="0" devices="tripinfo_vehicle_30" vType="DEFAULT_VEHTYPE" speedFactor="0.83" vaporized=""/>
    <tripinfo id="vehicle_74" depart="32.00" departLane="EW0_0" departPos="5.10" departSpeed="0.00" departDelay="32.00" arrival="51.00" arrivalLane="EW1_0" arrivalPos="89.60" arrivalSpeed="11.94" duration="19.00" routeLength="194.90" waitingTime="0.00" waitingCount="0" stopTime="0.00" timeLoss="3.35" rerouteNo="0" devices="tripinfo_vehicle_74" vType="DEFAULT_VEHTYPE" speedFactor="0.94" vaporized=""/>
    <tripinfo id="vehicle_31" depart="30.00" departLane="WE0_0" departPos="5.10" departSpeed="0.00" departDelay="30.00" arrival="52.00" arrivalLane="SN1_0" arrivalPos="89.60" arrivalSpeed="11.74" duration="22.00" routeLength="183.13" waitingTime="0.00" waitingCount="0" stopTime="0.00" timeLoss="5.86" rerouteNo="0" devices="tripinfo_vehicle_31" vType="DEFAULT_VEHTYPE" speedFactor="0.87" vaporized=""/>
    <tripinfo id="vehicle_75" depart="35.00" departLane="EW0_0" departPos="5.10" departSpeed="0.00" departDelay="35.00" arrival="53.00" arrivalLane="EW1_0" arrivalPos="89.60" arrivalSpeed="14.57" duration="18.00" routeLength="194.90" waitingTime="0.00" waitingCount="0" stopTime="0.00" timeLoss="4.05" rerouteNo="0" devices="tripinfo_vehicle_75" vType="DEFAULT_VEHTYPE" speedFactor="1.06" vaporized=""/>
    <tripinfo id="vehicle_32" depart="33.00" departLane="WE0_0" departPos="5.10" departSpeed="0.00" departDelay="33.00" arrival="55.00" arrivalLane="SN1_0" arrivalPos="89.60" arrivalSpeed="11.57" duration="22.00" routeLength="183.13" waitingTime="0.00" waitingCount="0" stopTime="0.00" timeLoss="6.40" rerouteNo="0" devices="tripinfo_vehicle_32" vType="DEFAULT_VEHTYPE" speedFactor="0.92" vaporized=""/>
    <tripinfo id="vehicle_33" depart="36.00" departLane="WE0_0" departPos="5.10" departSpeed="0.00" departDelay="36.00" arrival="57.00" arrivalLane="SN1_0" arrivalPos="89.60" arrivalSpeed="12.37" duration="21.00" routeLength="183.13" waitingTime="0.00" waitingCount="0" stopTime="0.00" timeLoss="5.88" rerouteNo="0" devices="tripinfo_vehicle_33" vType="DEFAULT_VEHTYPE" speedFactor="0.95" vaporized=""/>
    <tripinfo id="vehicle_76" depart="38.00" departLane="EW0_0" departPos="5.10" departSpeed="0.00" departDelay="38.00" arrival="57.00" arrivalLane="EW1_0" arrivalPos="89.60" arrivalSpeed="12.33" duration="19.00" routeLength="194.90" waitingTime="0.00" waitingCount="0" stopTime="0.00" timeLoss="3.78" rerouteNo="0" devices="tripinfo_vehicle_76" vType="DEFAULT_VEHTYPE" speedFactor="0.96" vaporized=""/>
    <tripinfo id="vehicle_0" depart="0.00" departLane="SN0_0" departPos="5.10" departSpeed="0.00" departDelay="0.00" arrival="62.00" arrivalLane="EW1_0" arrivalPos="89.60" arrivalSpeed="13.59" duration="62.00" routeLength="183.13" waitingTime="40.00" waitingCount="1" stopTime="0.00" timeLoss="48.45" rerouteNo="0" devices="tripinfo_vehicle_0" vType="DEFAULT_VEHTYPE" speedFactor="1.06" vaporized=""/>
    <tripinfo id="vehicle_34" depart="39.00" departLane="WE0_0" departPos="5.10" departSpeed="0.00" departDelay="39.00" arrival="62.00" arrivalLane="SN1_0" arrivalPos="89.60" arrivalSpeed="15.70" duration="23.00" routeLength="183.13" waitingTime="0.00" waitingCount="0" stopTime="0.00" timeLoss="10.76" rerouteNo="0" devices="tripinfo_vehicle_34" vType="DEFAULT_VEHTYPE" speedFactor="1.13" vaporized=""/>
    <tripinfo id="vehicle_43" depart="0.00" departLane="NS0_0" departPos="5.10" departSpeed="0.00" departDelay="0.00" arrival="62.00" arrivalLane="WE1_0" arrivalPos="89.60" arrivalSpeed="15.17" duration="62.00" routeLength="183.13" waitingTime="39.00" waitingCount="1" stopTime="0.00" timeLoss="48.91" rerouteNo="0" devices="tripinfo_vehicle_43" vType="DEFAULT_VEHTYPE" speedFactor="1.10" vaporized=""/>
    <tripinfo id="vehicle_16" depart="24.00" departLane="SN0_0" departPos="5.10" departSpeed="0.00" departDelay="24.00" arrival="63.00" arrivalLane="WE1_1" arrivalPos="89.60" arrivalSpeed="12.89" duration="39.00" routeLength="193.45" waitingTime="15.00" waitingCount="1" stopTime="0.00" timeLoss="23.21" rerouteNo="0" devices="tripinfo_vehicle_16" vType="DEFAULT_VEHTYPE" speedFactor="0.94" vaporized=""/>
    <tripinfo id="vehicle_35" depart="42.00" departLane="WE0_0" departPos="5.10" departSpeed="0.00" departDelay="42.00" arrival="66.00" arrivalLane="SN1_0" arrivalPos="89.60" arrivalSpeed="11.98" duration="24.00" routeLength="183.13" waitingTime="0.00" waitingCount="0" stopTime="0.00" timeLoss="8.87" rerouteNo="0" devices="tripinfo_vehicle_35" vType="DEFAULT_VEHTYPE" speedFactor="0.93" vaporized=""/>
    <tripinfo id="vehicle_77" depart="41.00" departLane="EW0_0" departPos="5.10" departSpeed="0.00" departDelay="41.00" arrival="66.00" arrivalLane="EW1_0" arrivalPos="89.60" arrivalSpeed="13.20" duration="25.00" routeLength="194.90" waitingTime="0.00" waitingCount="0" stopTime="0.00" timeLoss="10.37" rerouteNo="0" devices="tripinfo_vehicle_77" vType="DEFAULT_VEHTYPE" speedFactor="0.98" vaporized=""/>
    <tripinfo id="vehicle_36" depart="45.00" departLane="WE0_0" departPos="5.10" departSpeed="0.00" departDelay="45.00" arrival="68.00" arrivalLane="SN1_0" arrivalPos="89.60" arrivalSpeed="15.28" duration="23.00" routeLength="183.13" waitingTime="0.00" waitingCount="0" stopTime="0.00" timeLoss="10.77" rerouteNo="0" devices="tripinfo_vehicle_36" vType="DEFAULT_VEHTYPE" speedFactor="1.18" vaporized=""/>
    <tripinfo id="vehicle_78" depart="44.00" departLane="EW0_0" departPos="5.10" departSpeed="0.00" departDelay="44.00" arrival="68.00" arrivalLane="EW1_0" arrivalPos="89.60" arrivalSpeed="13.53" duration="24.00" routeLength="194.90" waitingTime="0.00" waitingCount="0" stopTime="0.00" timeLoss="10.11" rerouteNo="0" devices="tripinfo_vehicle_78" vType="DEFAULT_VEHTYPE" speedFactor="1.03" vaporized=""/>
    <tripinfo id="vehicle_37" depart="48.00" departLane="WE0_0" departPos="5.10" departSpeed="0.00" departDelay="48.00" arrival="70.00" arrivalLane="SN1_0" arrivalPos="89.60" arrivalSpeed="15.18" duration="22.00" routeLength="183.13" waitingTime="0.00" waitingCount="0" stopTime="0.00" timeLoss="9.28" rerouteNo="0" devices="tripinfo_vehicle_37" vType="DEFAULT_VEHTYPE" speedFactor="1.15" vaporized=""/>
    <tripinfo id="vehicle_79" depart="47.00" departLane="EW0_0" departPos="5.10" departSpeed="0.00" departDelay="47.00" arrival="70.00" arrivalLane="EW1_0" arrivalPos="89.60" arrivalSpeed="12.80" duration="23.00" routeLength="194.90" waitingTime="0.00" waitingCount="0" stopTime="0.00" timeLoss="8.52" rerouteNo="0" devices="tripinfo_vehicle_79" vType="DEFAULT_VEHTYPE" speedFactor="0.98" vaporized=""/>
    <tripinfo id="vehicle_80" depart="50.00" departLane="EW0_0" departPos="5.10" departSpeed="0.00" departDelay="50.00" arrival="72.00" arrivalLane="EW1_0" arrivalPos="89.60" arrivalSpeed="14.52" duration="22.00" routeLength="194.90" waitingTime="0.00" waitingCount="0" stopTime="0.00" timeLoss="8.46" rerouteNo="0" devices="tripinfo_vehicle_80" vType="DEFAULT_VEHTYPE" speedFactor="1.09" vaporized=""/>
    <tripinfo id="vehicle_38" depart="51.00" departLane="WE0_0" departPos="5.10" departSpeed="0.00" departDelay="51.00" arrival="73.00" arrivalLane="SN1_0" arrivalPos="89.60" arrivalSpeed="13.34" duration="22.00" routeLength="183.13" waitingTime="0.00" waitingCount="0" stopTime="0.00" timeLoss="7.83" rerouteNo="0" devices="tripinfo_vehicle_38" vType="DEFAULT_VEHTYPE" speedFactor="1.01" vaporized=""/>
    <tripinfo id="vehicle_81" depart="53.00" departLane="EW0_0" departPos="5.10" departSpeed="0.00" departDelay="53.00" arrival="74.00" arrivalLane="EW1_0" arrivalPos="89.60" arrivalSpeed="13.89" duration="21.00" routeLength="194.90" waitingTime="0.00" waitingCount="0" stopTime="0.00" timeLoss="6.66" rerouteNo="0" devices="tripinfo_vehicle_81" vType="DEFAULT_VEHTYPE" speedFactor="1.03" vaporized=""/>
    <tripinfo id="vehicle_39" depart="54.00" departLane="WE0_0" departPos="5.10" departSpeed="0.00" departDelay="54.00" arrival="75.00" arrivalLane="SN1_0" arrivalPos="89.60" arrivalSpeed="15.61" duration="21.00" routeLength="183.13" waitingTime="0.00" waitingCount="0" stopTime="0.00" timeLoss="8.62" rerouteNo="0" devices="tripinfo_vehicle_39" vType="DEFAULT_VEHTYPE" speedFactor="1.17" vaporized=""/>
    <tripinfo id="vehicle_82" depart="56.00" departLane="EW0_0" departPos="5.10" departSpeed="0.00" departDelay="56.00" arrival="75.00" arrivalLane="EW1_0" arrivalPos="89.60" arrivalSpeed="13.80" duration="19.00" routeLength="194.90" waitingTime="0.00" waitingCount="0" stopTime="0.00" timeLoss="4.93" rerouteNo="0" devices="tripinfo_vehicle_82" vType="DEFAULT_VEHTYPE" speedFactor="1.00" vaporized=""/>
    <tripinfo id="vehicle_83" depart="59.00" departLane="EW0_0" departPos="5.10" departSpeed="0.00" departDelay="59.00" arrival="77.00" arrivalLane="EW1_0" arrivalPos="89.60" arrivalSpeed="12.97" duration="18.00" routeLength="194.90" waitingTime="0.00" waitingCount="0" stopTime="0.00" timeLoss="4.12" rerouteNo="0" devices="tripinfo_vehicle_83" vType="DEFAULT_VEHTYPE" speedFactor="1.02" vaporized=""/>
    <tripinfo id="vehicle_40" depart="57.00" departLane="WE0_0" departPos="5.10" departSpeed="0.00" departDelay="57.00" arrival="78.00" arrivalLane="SN1_0" arrivalPos="89.60" arrivalSpeed="12.95" duration="21.00" routeLength="183.13" waitingTime="0.00" waitingCount="0" stopTime="0.00" timeLoss="7.08" rerouteNo="0" devices="tripinfo_vehicle_40" vType="DEFAULT_VEHTYPE" speedFactor="1.02" vaporized=""/>
    <tripinfo id="vehicle_41" depart="60.00" departLane="WE0_0" departPos="5.10" departSpeed="0.00" departDelay="60.00" arrival="81.00" arrivalLane="SN1_0" arrivalPos="89.60" arrivalSpeed="13.10" duration="21.00" routeLength="183.13" waitingTime="0.00" waitingCount="0" stopTime="0.00" timeLoss="6.51" rerouteNo="0" devices="tripinfo_vehicle_41" vType="DEFAULT_VEHTYPE" speedFactor="0.97" vaporized=""/>
    <tripinfo id="vehicle_42" depart="63.00" departLane="WE0_0" departPos="5.10" departSpeed="0.00" departDelay="63.00" arrival="83.00" arrivalLane="SN1_0" arrivalPos="89.60" arrivalSpeed="15.85" duration="20.00" routeLength="183.13" waitingTime="0.00" waitingCount="0" stopTime="0.00" timeLoss="7.24" rerouteNo="0" devices="tripinfo_vehicle_42" vType="DEFAULT_VEHTYPE" speedFactor="1.18" vaporized=""/>
    <tripinfo id="vehicle_1" depart="3.00" departLane="SN0_0" departPos="5.10" departSpeed="0.00" departDelay="3.00" arrival="108.00" arrivalLane="EW1_0" arrivalPos="89.60" arrivalSpeed="12.16" duration="105.00" routeLength="183.13" waitingTime="79.00" waitingCount="2" stopTime="0.00" timeLoss="90.07" rerouteNo="0" devices="tripinfo_vehicle_1" vType="DEFAULT_VEHTYPE" speedFactor="0.94" vaporized=""/>
    <tripinfo id="vehicle_17" depart="26.00" departLane="SN0_0" departPos="5.10" departSpeed="0.00" departDelay="26.00" arrival="109.00" arrivalLane="WE1_1" arrivalPos="89.60" arrivalSpeed="10.91" duration="83.00" routeLength="193.45" waitingTime="55.00" waitingCount="2" stopTime="0.00" timeLoss="66.06" rerouteNo="0" devices="tripinfo_vehicle_17" vType="DEFAULT_VEHTYPE" speedFactor="0.86" vaporized=""/>
    <tripinfo id="vehicle_44" depart="3.00" departLane="NS0_0" departPos="5.10" departSpeed="0.00" departDelay="3.00" arrival="109.00" arrivalLane="WE1_0" arrivalPos="89.60" arrivalSpeed="11.96" duration="106.00" routeLength="183.13" waitingTime="79.00" waitingCount="2" stopTime="0.00" timeLoss="89.96" rerouteNo="0" devices="tripinfo_vehicle_44" vType="DEFAULT_VEHTYPE" speedFactor="0.90" vaporized=""/>
    <tripinfo id="vehicle_10" depart="6.00" departLane="SN0_0" departPos="5.10" departSpeed="0.00" departDelay="6.00" arrival="110.00" arrivalLane="SN1_0" arrivalPos="89.60" arrivalSpeed="13.09" duration="104.00" routeLength="194.90" waitingTime="76.00" waitingCount="2" stopTime="0.00" timeLoss="89.80" rerouteNo="0" devices="tripinfo_vehicle_10" vType="DEFAULT_VEHTYPE" speedFactor="1.01" vaporized=""/>
    <tripinfo id="vehicle_18" depart="28.00" departLane="SN0_0" departPos="5.10" departSpeed="0.00" departDelay="28.00" arrival="111.00" arrivalLane="WE1_1" arrivalPos="89.60" arrivalSpeed="14.40" duration="83.00" routeLength="193.45" waitingTime="53.00" waitingCount="2" stopTime="0.00" timeLoss="69.23" rerouteNo="0" devices="tripinfo_vehicle_18" vType="DEFAULT_VEHTYPE" speedFactor="1.09" vaporized=""/>
    <tripinfo id="vehicle_45" depart="6.00" departLane="NS0_0" departPos="5.10" departSpeed="0.00" departDelay="6.00" arrival="111.00" arrivalLane="WE1_0" arrivalPos="89.60" arrivalSpeed="14.30" duration="105.00" routeLength="183.13" waitingTime="76.00" waitingCount="2" stopTime="0.00" timeLoss="90.35" rerouteNo="0" devices="tripinfo_vehicle_45" vType="DEFAULT_VEHTYPE" speedFactor="1.03" vaporized=""/>
    <tripinfo id="vehicle_11" depart="9.00" departLane="SN0_0" departPos="5.10" departSpeed="0.00" departDelay="9.00" arrival="112.00" arrivalLane="SN1_0" arrivalPos="89.60" arrivalSpeed="14.27" duration="103.00" routeLength="194.90" waitingTime="75.00" waitingCount="2" stopTime="0.00" timeLoss="89.54" rerouteNo="0" devices="tripinfo_vehicle_11" vType="DEFAULT_VEHTYPE" speedFactor="1.08" vaporized=""/>
    <tripinfo id="vehicle_19" depart="30.00" departLane="SN0_0" departPos="5.10" departSpeed="0.00" departDelay="30.00" arrival="113.00" arrivalLane="WE1_1" arrivalPos="89.60" arrivalSpeed="13.38" duration="83.00" routeLength="193.45" waitingTime="50.00" waitingCount="2" stopTime="0.00" timeLoss="68.13" rerouteNo="0" devices="tripinfo_vehicle_19" vType="DEFAULT_VEHTYPE" speedFactor="1.03" vaporized=""/>
    <tripinfo id="vehicle_12" depart="12.00" departLane="SN0_0" departPos="5.10" departSpeed="0.00" departDelay="12.00" arrival="114.00" arrivalLane="SN1_0" arrivalPos="89.60" arrivalSpeed="13.34" duration="102.00" routeLength="194.90" waitingTime="72.00" waitingCount="2" stopTime="0.00" timeLoss="88.18" rerouteNo="0" devices="tripinfo_vehicle_12" vType="DEFAULT_VEHTYPE" speedFactor="1.03" vaporized=""/>
    <tripinfo id="vehicle_46" depart="9.00" departLane="NS0_0" departPos="5.10" departSpeed="0.00" departDelay="9.00" arrival="114.00" arrivalLane="WE1_0" arrivalPos="89.60" arrivalSpeed="12.06" duration="105.00" routeLength="183.13" waitingTime="75.00" waitingCount="2" stopTime="0.00" timeLoss="89.65" rerouteNo="0" devices="tripinfo_vehicle_46" vType="DEFAULT_VEHTYPE" speedFactor="0.96" vaporized=""/>
    <tripinfo id="vehicle_3" depart="38.00" departLane="SN0_0" departPos="5.10" departSpeed="0.00" departDelay="38.00" arrival="116.00" arrivalLane="WE1_1" arrivalPos="89.60" arrivalSpeed="12.05" duration="78.00" routeLength="193.45" waitingTime="44.00" waitingCount="2" stopTime="0.00" timeLoss="61.04" rerouteNo="0" devices="tripinfo_vehicle_3" vType="DEFAULT_VEHTYPE" speedFactor="0.89" vaporized=""/>
    <tripinfo id="vehicle_47" depart="12.00" departLane="NS0_0" departPos="5.10" departSpeed="0.00" departDelay="12.00" arrival="116.00" arrivalLane="WE1_0" arrivalPos="89.60" arrivalSpeed="14.61" duration="104.00" routeLength="183.13" waitingTime="72.00" waitingCount="2" stopTime="0.00" timeLoss="90.42" rerouteNo="0" devices="tripinfo_vehicle_47" vType="DEFAULT_VEHTYPE" speedFactor="1.09" vaporized=""/>
    <tripinfo id="vehicle_13" depart="15.00" departLane="SN0_0" departPos="5.10" departSpeed="0.00" departDelay="15.00" arrival="118.00" arrivalLane="SN1_0" arrivalPos="89.60" arrivalSpeed="10.66" duration="103.00" routeLength="194.90" waitingTime="70.00" waitingCount="2" stopTime="0.00" timeLoss="85.94" rerouteNo="0" devices="tripinfo_vehicle_13" vType="DEFAULT_VEHTYPE" speedFactor="0.83" vaporized=""/>
    <tripinfo id="vehicle_48" depart="15.00" departLane="NS0_0" departPos="5.10" departSpeed="0.00" departDelay="15.00" arrival="118.00" arrivalLane="WE1_0" arrivalPos="89.60" arrivalSpeed="13.83" duration="103.00" routeLength="183.13" waitingTime="70.00" waitingCount="2" stopTime="0.00" timeLoss="89.06" rerouteNo="0" devices="tripinfo_vehicle_48" vType="DEFAULT_VEHTYPE" speedFactor="1.04" vaporized=""/>
    <tripinfo id="vehicle_14" depart="18.00" departLane="SN0_0" departPos="5.10" departSpeed="0.00" departDelay="18.00" arrival="120.00" arrivalLane="SN1_0" arrivalPos="89.60" arrivalSpeed="13.72" duration="102.00" routeLength="194.90" waitingTime="69.00" waitingCount="2" stopTime="0.00" timeLoss="88.10" rerouteNo="0" devices="tripinfo_vehicle_14" vType="DEFAULT_VEHTYPE" speedFactor="1.05" vaporized=""/>
    <tripinfo id="vehicle_49" depart="18.00" departLane="NS0_0" departPos="5.10" departSpeed="0.00" departDelay="18.00" arrival="120.00" arrivalLane="WE1_0" arrivalPos="89.60" arrivalSpeed="13.61" duration="102.00" routeLength="183.13" waitingTime="68.00" waitingCount="2" stopTime="0.00" timeLoss="88.37" rerouteNo="0" devices="tripinfo_vehicle_49" vType="DEFAULT_VEHTYPE" speedFactor="1.04" vaporized=""/>
    <tripinfo id="vehicle_15" depart="21.00" departLane="SN0_0" departPos="5.10" departSpeed="0.00" departDelay="21.00" arrival="122.00" arrivalLane="SN1_0" arrivalPos="89.60" arrivalSpeed="11.65" duration="101.00" routeLength="194.90" waitingTime="69.00" waitingCount="2" stopTime="0.00" timeLoss="84.54" rerouteNo="0" devices="tripinfo_vehicle_15" vType="DEFAULT_VEHTYPE" speedFactor="0.89" vaporized=""/>
    <tripinfo id="vehicle_2" depart="32.00" departLane="SN0_0" departPos="5.10" departSpeed="0.00" departDelay="32.00" arrival="123.00" arrivalLane="EW1_0" arrivalPos="89.60" arrivalSpeed="14.35" duration="91.00" routeLength="183.13" waitingTime="58.00" waitingCount="2" stopTime="0.00" timeLoss="77.25" rerouteNo="0" devices="tripinfo_vehicle_2" vType="DEFAULT_VEHTYPE" speedFactor="1.05" vaporized=""/>
    <tripinfo id="vehicle_50" depart="21.00" departLane="NS0_0" departPos="5.10" departSpeed="0.00" departDelay="21.00" arrival="123.00" arrivalLane="WE1_0" arrivalPos="89.60" arrivalSpeed="12.83" duration="102.00" routeLength="183.13" waitingTime="65.00" waitingCount="2" stopTime="0.00" timeLoss="88.03" rerouteNo="0" devices="tripinfo_vehicle_50" vType="DEFAULT_VEHTYPE" speedFactor="1.00" vaporized=""/>
    <tripinfo id="vehicle_20" depart="35.00" departLane="SN0_0" departPos="5.10" departSpeed="0.00" departDelay="35.00" arrival="125.00" arrivalLane="EW1_0" arrivalPos="89.60" arrivalSpeed="14.96" duration="90.00" routeLength="183.13" waitingTime="57.00" waitingCount="2" stopTime="0.00" timeLoss="77.61" rerouteNo="0" devices="tripinfo_vehicle_20" vType="DEFAULT_VEHTYPE" speedFactor="1.12" vaporized=""/>
    <tripinfo id="vehicle_51" depart="24.00" departLane="NS0_0" departPos="5.10" departSpeed="0.00" departDelay="24.00" arrival="127.00" arrivalLane="WE1_0" arrivalPos="89.60" arrivalSpeed="11.27" duration="103.00" routeLength="183.13" waitingTime="64.00" waitingCount="2" stopTime="0.00" timeLoss="87.01" rerouteNo="0" devices="tripinfo_vehicle_51" vType="DEFAULT_VEHTYPE" speedFactor="0.90" vaporized=""/>
    <tripinfo id="vehicle_4" depart="39.00" departLane="SN0_0" departPos="5.10" departSpeed="0.00" departDelay="39.00" arrival="129.00" arrivalLane="EW1_0" arrivalPos="89.60" arrivalSpeed="13.74" duration="90.00" routeLength="183.13" waitingTime="54.00" waitingCount="2" stopTime="0.00" timeLoss="75.12" rerouteNo="0" devices="tripinfo_vehicle_4" vType="DEFAULT_VEHTYPE" speedFactor="0.99" vaporized=""/>
    <tripinfo id="vehicle_52" depart="27.00" departLane="NS0_0" departPos="5.10" departSpeed="0.00" departDelay="27.00" arrival="129.00" arrivalLane="WE1_0" arrivalPos="89.60" arrivalSpeed="11.38" duration="102.00" routeLength="183.13" waitingTime="62.00" waitingCount="2" stopTime="0.00" timeLoss="85.93" rerouteNo="0" devices="tripinfo_vehicle_52" vType="DEFAULT_VEHTYPE" speedFactor="0.88" vaporized=""/>
    <tripinfo id="vehicle_5" depart="42.00" departLane="SN0_0" departPos="5.10" departSpeed="0.00" departDelay="42.00" arrival="131.00" arrivalLane="EW1_0" arrivalPos="89.60" arrivalSpeed="14.58" duration="89.00" routeLength="183.13" waitingTime="52.00" waitingCount="2" stopTime="0.00" timeLoss="75.70" rerouteNo="0" devices="tripinfo_vehicle_5" vType="DEFAULT_VEHTYPE" speedFactor="1.09" vaporized=""/>
    <tripinfo id="vehicle_53" depart="30.00" departLane="NS0_0" departPos="5.10" departSpeed="0.00" departDelay="30.00" arrival="133.00" arrivalLane="WE1_0" arrivalPos="89.60" arrivalSpeed="10.71" duration="103.00" routeLength="183.13" waitingTime="61.00" waitingCount="2" stopTime="0.00" timeLoss="86.00" rerouteNo="0" devices="tripinfo_vehicle_53" vType="DEFAULT_VEHTYPE" speedFactor="0.85" vaporized=""/>
    <tripinfo id="vehicle_6" depart="70.00" departLane="SN0_0" departPos="5.10" departSpeed="0.00" departDelay="70.00" arrival="134.00" arrivalLane="EW1_0" arrivalPos="89.60" arrivalSpeed="11.92" duration="64.00" routeLength="183.13" waitingTime="36.00" waitingCount="2" stopTime="0.00" timeLoss="48.87" rerouteNo="0" devices="tripinfo_vehicle_6" vType="DEFAULT_VEHTYPE" speedFactor="0.90" vaporized=""/>